48
smiles = [O:1]=[As](c1ccccc1)(c1ccccc1)c1ccccc1  energy = -3412.3321652160284 Hartee
F 6.356001 -0.956214 -0.345962
C 5.150909 -0.335534 -0.515208
C 4.191162 -0.943424 -1.300186
C 2.971685 -0.313158 -1.465838
C 2.723294 0.909861 -0.848556
C 3.711414 1.501952 -0.063052
C 4.932523 0.879286 0.106158
O 1.535632 1.551242 -0.982985
H 4.398547 -1.891220 -1.770354
H 2.199867 -0.766410 -2.073350
H 3.503861 2.449772 0.407262
H 5.707889 1.322976 0.709802
H 0.935047 1.013604 -1.550961
O -0.477433 -0.035732 -2.054638
As -1.047174 -0.046247 -0.522323
C -2.662279 -1.110321 -0.404940
C -3.462870 -1.201898 -1.535292
C -4.644545 -1.922444 -1.493229
C -5.025957 -2.548276 -0.317092
C -4.227363 -2.458612 0.812430
C -3.044839 -1.739225 0.772416
C 0.217477 -0.855993 0.711899
C 0.465828 -2.214412 0.564316
C 1.390476 -2.841796 1.380812
C 2.067684 -2.107870 2.342398
C 1.826404 -0.750993 2.483555
C 0.902752 -0.120298 1.666039
C -1.522062 1.714459 0.128984
C -2.014810 1.870338 1.418098
C -2.391464 3.126184 1.860956
C -2.283474 4.221141 1.017063
C -1.802867 4.063767 -0.272900
C -1.424948 2.808053 -0.718779
H -3.133115 -0.710840 -2.446392
H -5.264945 -1.995836 -2.374421
H -5.946882 -3.111352 -0.281252
H -4.525717 -2.951784 1.726067
H -2.411666 -1.672085 1.649689
H -0.074270 -2.766683 -0.202008
H 1.584166 -3.898335 1.267483
H 2.790508 -2.594828 2.979774
H 2.361963 -0.180887 3.228067
H 0.713577 0.943144 1.758456
H -2.097147 1.007906 2.068753
H -2.770481 3.251919 2.864714
H -2.577475 5.199753 1.366530
H -1.723048 4.916548 -0.930756
H -1.048321 2.657890 -1.726095
>
34
smiles = C1CN2CCC[N:1]=C2C1  energy = -789.8589024952054 Hartee
F -5.549762 0.021565 -1.347065
C -4.394665 0.016414 -0.611199
C -3.207142 -0.312585 -1.234189
C -2.043218 -0.315638 -0.488680
C -2.070034 0.008052 0.867578
C -3.287402 0.336469 1.468258
C -4.454694 0.341647 0.730264
O -0.956885 0.018944 1.624787
H -3.201200 -0.561313 -2.283886
H -1.099290 -0.568803 -0.946223
H -3.298020 0.584681 2.517780
H -5.401233 0.592870 1.182015
H -0.154388 -0.241540 1.075123
C 3.129351 2.415835 0.017580
C 4.040315 1.372920 -0.641496
N 3.366099 0.127556 -0.359559
C 3.952727 -1.176185 -0.527602
C 3.190758 -2.155911 0.366406
C 1.687061 -2.015794 0.115761
N 1.225676 -0.643723 0.217309
C 2.071064 0.285115 -0.024361
C 1.747539 1.751422 0.009396
H 3.449458 2.589413 1.045187
H 3.140183 3.364554 -0.513637
H 5.049680 1.365501 -0.221770
H 4.116838 1.530819 -1.726228
H 5.008593 -1.132513 -0.242406
H 3.894109 -1.492447 -1.578927
H 3.394971 -1.916414 1.412165
H 3.514349 -3.177348 0.170610
H 1.120945 -2.600078 0.846595
H 1.433513 -2.395862 -0.882077
H 1.185886 2.007984 -0.891379
H 1.136172 2.007461 0.871815
>
40
smiles = C1C[N:1]=C2CCCCCN2C1  energy = -868.426884760672 Hartee
F 5.242336 1.389284 1.221198
C 4.289085 0.628820 0.597362
C 2.978605 0.720075 1.022301
C 2.019427 -0.048718 0.390416
C 2.369591 -0.900201 -0.657589
C 3.704557 -0.968753 -1.063609
C 4.669079 -0.204784 -0.437019
O 1.463455 -1.659094 -1.300873
H 2.720953 1.382621 1.833757
H 0.987110 0.001434 0.699620
H 3.965579 -1.629825 -1.874770
H 5.702864 -0.249672 -0.740861
H 0.542533 -1.524888 -0.907557
C -2.479362 -1.848493 1.615286
C -1.392974 -2.345989 0.664945
N -0.971009 -1.312901 -0.253632
C -1.784147 -0.374442 -0.578622
C -1.281032 0.678979 -1.528375
C -1.180101 2.085505 -0.898448
C -1.911302 2.230238 0.436712
C -3.432481 2.125787 0.317757
C -3.865092 0.887629 -0.481298
N -3.067045 -0.273166 -0.159607
C -3.602370 -1.237969 0.783528
H -2.055889 -1.085663 2.272927
H -2.862707 -2.663050 2.228604
H -0.505975 -2.669102 1.218837
H -1.755020 -3.206456 0.089049
H -1.940757 0.696058 -2.397881
H -0.299563 0.361992 -1.878600
H -1.563899 2.829128 -1.598909
H -0.127010 2.313643 -0.725789
H -1.544134 1.466287 1.126005
H -1.661449 3.200678 0.871231
H -3.857975 2.086555 1.323207
H -3.829062 3.013362 -0.177425
H -4.910319 0.651287 -0.271382
H -3.784376 1.094339 -1.550457
H -4.321195 -0.733657 1.434107
H -4.130886 -2.029528 0.235089
>
63
smiles = [O:1]=P(N1CCCCC1)(N1CCCCC1)N1CCCCC1  energy = -1576.60380400436 Hartee
F 7.287272 -0.885107 -0.660464
C 6.091223 -0.338650 -0.285955
C 4.921735 -0.943287 -0.702560
C 3.714835 -0.386887 -0.321202
C 3.686842 0.760962 0.466423
C 4.883316 1.350628 0.872747
C 6.093056 0.800490 0.496277
O 2.521694 1.332102 0.857419
H 4.960918 -1.831775 -1.312695
H 2.781481 -0.834392 -0.629110
H 4.844925 2.238966 1.482584
H 7.027641 1.243155 0.801502
H 1.766916 0.813663 0.505292
O 0.379378 -0.100535 -0.137896
P -1.102529 -0.013770 -0.060372
N -1.959475 -1.224086 -0.864500
C -2.066177 -1.106217 -2.316306
C -1.081146 -2.025874 -3.029198
C -1.423555 -3.492138 -2.735601
C -2.084150 -3.623074 -1.357203
C -1.553913 -2.557727 -0.408514
N -1.646991 1.410458 -0.733759
C -0.737289 2.474883 -1.132537
C -1.262282 3.822495 -0.653072
C -2.597951 4.145433 -1.338296
C -3.359480 2.858555 -1.683848
C -3.055778 1.772182 -0.659404
N -1.617922 -0.229425 1.511788
C -3.004277 -0.423396 1.882132
C -3.113059 -1.540956 2.937189
C -1.786290 -1.687939 3.687658
C -1.183791 -0.307271 3.924362
C -0.796687 0.322616 2.579768
H -1.875309 -0.066265 -2.588166
H -3.091431 -1.359457 -2.612561
H -1.105306 -1.832655 -4.102292
H -0.077335 -1.788215 -2.669557
H -2.101885 -3.877127 -3.498665
H -0.511586 -4.090053 -2.771458
H -1.887522 -4.608878 -0.934759
H -3.165409 -3.504713 -1.441122
H -0.458873 -2.632529 -0.343852
H -1.955777 -2.700129 0.595582
H -0.633980 2.491400 -2.225905
H 0.245608 2.264193 -0.708185
H -0.524116 4.595159 -0.868188
H -1.390256 3.779454 0.430189
H -3.200233 4.769061 -0.675888
H -2.419920 4.712525 -2.252945
H -3.065970 2.499438 -2.671320
H -4.433103 3.047111 -1.703388
H -3.645295 0.874565 -0.857720
H -3.315982 2.140749 0.341247
H -3.412437 0.509938 2.290539
H -3.563323 -0.680557 0.983259
H -3.375243 -2.489368 2.466860
H -3.909383 -1.287554 3.638528
H -1.947606 -2.202923 4.635344
H -1.085847 -2.278767 3.094471
H -1.917538 0.318931 4.435239
H -0.300056 -0.373710 4.559111
H 0.242743 0.096605 2.333084
H -0.895957 1.416518 2.636643
>
29
smiles = COc1cc[n+]([O-:1])cc1  energy = -844.3748822795164 Hartee
F -6.546892 0.440812 0.120317
C -5.223621 0.096581 0.060742
C -4.272688 1.098103 0.053398
C -2.937436 0.745961 -0.007057
C -2.565386 -0.595936 -0.058986
C -3.547640 -1.586271 -0.049867
C -4.883901 -1.241588 0.010117
O -1.269308 -0.971127 -0.118019
H -4.577523 2.131787 0.094377
H -2.167181 1.503242 -0.014915
H -3.246261 -2.620960 -0.090596
H -5.655834 -1.994617 0.017792
H -0.687583 -0.157462 -0.116928
C 6.168533 -1.416767 0.092327
O 5.690086 -0.081773 0.071876
C 4.362058 0.131737 0.028929
C 3.932113 1.465216 0.008977
C 2.595046 1.757254 -0.035987
N 1.659904 0.786900 -0.060014
O 0.408850 1.105143 -0.100380
C 2.047533 -0.498880 -0.040380
C 3.376185 -0.855980 0.003560
H 7.252931 -1.333507 0.125916
H 5.870603 -1.955756 -0.810322
H 5.814615 -1.948487 0.978856
H 4.661128 2.257888 0.027824
H 2.216997 2.767466 -0.053723
H 1.258716 -1.235308 -0.060610
H 3.620309 -1.904419 0.017120
>
36
smiles = CCP(=[O:1])(CC)CC  energy = -1060.6520092524993 Hartee
F 5.956594 -0.827724 -0.695100
C 4.715262 -0.351576 -0.373422
C 4.615802 0.729998 0.480866
C 3.360950 1.208131 0.804626
C 2.220621 0.605648 0.274146
C 2.350846 -0.482304 -0.585747
C 3.603415 -0.966968 -0.913733
O 1.009490 1.103299 0.617871
H 5.507820 1.184393 0.881559
H 3.244853 2.050041 1.468190
H 1.462193 -0.940884 -0.994075
H 3.721276 -1.808251 -1.578094
H 0.304441 0.580720 0.177048
C -2.443511 2.505324 -0.258736
C -2.666068 1.357361 0.716355
P -2.402230 -0.262344 -0.113339
O -0.998040 -0.406951 -0.599865
C -3.577181 -0.416024 -1.515725
C -5.046904 -0.257856 -1.160569
C -2.843769 -1.568903 1.105842
C -1.789070 -1.659622 2.199477
H -2.435892 3.456250 0.270143
H -1.484282 2.386014 -0.760503
H -3.226176 2.537834 -1.013506
H -1.925886 1.405507 1.519242
H -3.662020 1.393582 1.154909
H -3.379200 -1.399153 -1.953520
H -3.261692 0.329699 -2.250703
H -5.359533 -1.021767 -0.453275
H -5.238560 0.718961 -0.724249
H -5.655362 -0.355583 -2.057810
H -2.890206 -2.508545 0.548150
H -3.826654 -1.363136 1.527186
H -0.803611 -1.789907 1.755108
H -1.988191 -2.506538 2.853178
H -1.773180 -0.754604 2.802668
>
54
smiles = CCCCP(=[O:1])(CCCC)CCCC  energy = -1296.3849657731193 Hartee
F 6.930023 -1.133475 -0.509216
C 5.733509 -0.587724 -0.132970
C 4.598501 -0.906567 -0.851872
C 3.391417 -0.352556 -0.467689
C 3.328992 0.510232 0.623969
C 4.491399 0.814247 1.331926
C 5.701011 0.264507 0.954108
O 2.163698 1.070181 1.026539
H 4.663921 -1.575347 -1.695455
H 2.486058 -0.580854 -1.010379
H 4.428073 1.484329 2.174328
H 6.609264 0.489694 1.490044
H 1.435039 0.761112 0.445002
C -2.969183 -2.592545 -3.589926
C -2.695186 -3.175287 -2.207528
C -1.790630 -2.290828 -1.347511
C -2.435281 -0.962416 -0.965332
P -1.275811 0.005417 0.078801
O 0.072858 0.108973 -0.555655
C -1.087758 -0.818749 1.715341
C -2.306286 -1.466421 2.359417
C -3.407356 -0.472569 2.716041
C -4.533517 -1.139861 3.498607
C -1.994618 1.682993 0.321556
C -1.784820 2.529141 -0.929158
C -2.236426 3.973712 -0.722058
C -2.015092 4.817650 -1.972030
H -3.523659 -3.306560 -4.195094
H -2.034195 -2.365914 -4.098349
H -3.556376 -1.679882 -3.524738
H -3.642120 -3.339043 -1.687353
H -2.210243 -4.147179 -2.324755
H -1.526387 -2.835195 -0.437006
H -0.860465 -2.084584 -1.882772
H -2.626782 -0.361293 -1.856193
H -3.374782 -1.116328 -0.436125
H -0.655282 -0.059710 2.374852
H -0.308304 -1.567733 1.541999
H -2.712148 -2.234078 1.698091
H -1.973529 -1.967005 3.273064
H -2.983973 0.339428 3.311180
H -3.817095 -0.040969 1.801799
H -4.159117 -1.549148 4.434625
H -5.317057 -0.421402 3.728827
H -4.971816 -1.952533 2.922564
H -1.461252 2.128686 1.165753
H -3.051612 1.620500 0.572054
H -0.724427 2.510711 -1.193009
H -2.336894 2.094498 -1.766126
H -3.296706 3.987230 -0.457752
H -1.679475 4.408077 0.111310
H -2.333536 5.843656 -1.801773
H -2.581059 4.416753 -2.810452
H -0.961621 4.825113 -2.243634
>
42
smiles = CN(C)P(=[O:1])(N(C)C)N(C)C  energy = -1226.6035870983596 Hartee
F -6.400481 1.230296 0.010580
C -5.216015 0.547579 -0.035211
C -4.042930 1.256484 -0.202630
C -2.848026 0.562197 -0.246764
C -2.834825 -0.825052 -0.123234
C -4.035437 -1.515111 0.043692
C -5.233212 -0.828548 0.088452
O -1.683466 -1.536970 -0.159127
H -4.069752 2.330538 -0.296630
H -1.913546 1.086991 -0.379151
H -4.009842 -2.589014 0.136484
H -6.170202 -1.346464 0.217192
H -0.922702 -0.927765 -0.266757
C 3.207175 -1.468964 1.768716
N 2.041980 -0.719300 1.357193
C 1.127316 -0.396073 2.432088
P 1.885666 0.111059 -0.086350
O 0.458119 0.213833 -0.463144
N 2.537020 1.639977 0.105115
C 2.197467 2.652464 -0.872187
C 3.690798 1.953605 0.918569
N 2.741013 -0.695559 -1.275968
C 4.162238 -0.562064 -1.508145
C 2.152013 -1.884810 -1.856273
H 3.755785 -0.959890 2.569523
H 3.868267 -1.614600 0.920365
H 2.892917 -2.447638 2.143134
H 0.731661 -1.315234 2.870676
H 0.302776 0.183983 2.024420
H 1.619034 0.188049 3.216800
H 3.014635 2.822441 -1.580817
H 1.317622 2.320484 -1.418857
H 1.969459 3.592875 -0.364684
H 3.928188 1.109095 1.558123
H 3.465422 2.820487 1.547032
H 4.565322 2.198617 0.305209
H 4.340814 -0.426169 -2.578954
H 4.713287 -1.452178 -1.184039
H 4.541637 0.305010 -0.976680
H 2.300646 -1.875434 -2.938665
H 1.085155 -1.885629 -1.645281
H 2.596065 -2.798056 -1.447052
>
90
smiles = CCCCCCCCP(=[O:1])(CCCCCCCC)CCCCCCCC  energy = -1767.8460850974632 Hartee
F -3.143367 -3.652363 6.140759
C -2.964047 -2.857049 5.042503
C -1.970148 -3.179419 4.139555
C -1.792439 -2.372374 3.031148
C -2.604148 -1.257470 2.835309
C -3.599281 -0.955059 3.764338
C -3.782784 -1.756740 4.874165
O -2.457782 -0.447363 1.760281
H -1.351136 -4.046834 4.305050
H -1.024172 -2.597907 2.306275
H -4.220176 -0.088853 3.599889
H -4.547716 -1.537831 5.601944
H -1.712125 -0.769572 1.207557
C -7.272501 -2.021454 -4.540408
C -6.046749 -2.605872 -3.847280
C -4.816375 -1.716828 -4.017242
C -3.585386 -2.296679 -3.322996
C -2.353530 -1.411141 -3.499559
C -1.128212 -2.005648 -2.807476
C 0.134167 -1.158895 -2.978872
C 0.127007 0.113150 -2.130260
P 0.586752 -0.212549 -0.379864
O -0.255340 -1.266423 0.265443
C 0.345440 1.363459 0.531866
C 1.121865 2.582959 0.055277
C 0.764327 3.844667 0.847568
C -0.624417 4.389224 0.516555
C -1.008965 5.608914 1.357196
C -0.132164 6.848116 1.155637
C -0.104056 7.398691 -0.271834
C -1.465077 7.885721 -0.757610
C 2.352484 -0.720569 -0.295533
C 3.312623 -0.076851 -1.288441
C 4.747853 -0.582503 -1.113128
C 5.407880 -0.090372 0.173713
C 6.895389 -0.438223 0.272180
C 7.184798 -1.943495 0.374650
C 7.616811 -2.575011 -0.948976
C 7.853903 -4.074679 -0.805931
H -7.512269 -1.042602 -4.129787
H -8.134748 -2.670799 -4.405094
H -7.090900 -1.909659 -5.607568
H -5.835610 -3.595976 -4.258805
H -6.256505 -2.729423 -2.782035
H -4.606063 -1.594281 -5.082894
H -5.029565 -0.726839 -3.606327
H -3.377819 -3.290351 -3.727991
H -3.792523 -2.413026 -2.256337
H -2.144112 -1.292476 -4.566106
H -2.572796 -0.422262 -3.091962
H -1.332250 -2.128940 -1.743456
H -0.941748 -2.998323 -3.224838
H 0.999999 -1.765734 -2.701439
H 0.240787 -0.889717 -4.033429
H -0.866918 0.564008 -2.114989
H 0.826712 0.845379 -2.531398
H -0.733536 1.538009 0.487132
H 0.586416 1.134132 1.575188
H 0.924191 2.760401 -1.003062
H 2.189539 2.392859 0.175104
H 0.822649 3.628667 1.917070
H 1.509310 4.609652 0.622028
H -0.671000 4.641575 -0.544228
H -1.371570 3.614399 0.701405
H -2.046643 5.867830 1.137705
H -0.963977 5.331103 2.413901
H -0.500426 7.632378 1.822594
H 0.890687 6.620243 1.462623
H 0.274926 6.637805 -0.956224
H 0.598453 8.236144 -0.297616
H -1.874122 8.621835 -0.068162
H -2.169821 7.062187 -0.839430
H -1.371790 8.349774 -1.737528
H 2.340369 -1.807651 -0.419560
H 2.654134 -0.519122 0.735910
H 3.298666 1.007671 -1.174951
H 2.987244 -0.310522 -2.303594
H 5.341240 -0.235019 -1.962415
H 4.742818 -1.673304 -1.130671
H 4.895186 -0.511725 1.040719
H 5.308012 0.997386 0.225603
H 7.291237 0.061158 1.159772
H 7.421113 -0.025600 -0.591762
H 6.298813 -2.460650 0.749721
H 7.983365 -2.108883 1.102044
H 8.538846 -2.095907 -1.287992
H 6.856244 -2.402690 -1.711466
H 8.172086 -4.504701 -1.753348
H 8.625402 -4.271196 -0.063918
H 6.941993 -4.577843 -0.490215
>
27
smiles = CP(C)(C)=[O:1]  energy = -942.7885919402077 Hartee
F -5.292889 -1.012207 0.018394
C -4.049049 -0.442752 0.005446
C -2.938954 -1.263783 -0.020197
C -1.684008 -0.683752 -0.031960
C -1.549743 0.702482 -0.017567
C -2.688405 1.507333 0.007403
C -3.945564 0.934909 0.019539
O -0.335875 1.302080 -0.026737
H -3.060115 -2.335345 -0.030631
H -0.796101 -1.298427 -0.051383
H -2.569582 2.578986 0.017560
H -4.836257 1.542365 0.039321
H 0.366441 0.615525 -0.041359
C 3.306385 1.516115 -0.630739
P 3.104918 -0.183131 0.001733
C 3.770198 -0.200467 1.701351
C 4.184671 -1.259954 -1.001094
O 1.678936 -0.625851 -0.043100
H 2.677478 2.177723 -0.037598
H 4.341650 1.834953 -0.577092
H 2.960325 1.540570 -1.662250
H 3.168703 0.472594 2.309444
H 4.809357 0.110301 1.718875
H 3.674713 -1.209810 2.096993
H 3.824858 -1.243809 -2.027881
H 4.107607 -2.275762 -0.618290
H 5.215486 -0.923653 -0.961644
>
39
smiles = CN1CCCN2CCC[N:1]=C12  energy = -884.4700368956169 Hartee
F -6.060592 0.136766 -0.915255
C -4.812189 0.023059 -0.363633
C -3.715626 0.416720 -1.104586
C -2.457449 0.301078 -0.544204
C -2.300959 -0.202243 0.747002
C -3.430099 -0.592831 1.470277
C -4.690430 -0.480913 0.916981
O -1.091986 -0.328536 1.326337
H -3.850746 0.806188 -2.101398
H -1.581738 0.603966 -1.097179
H -3.299345 -0.981073 2.467993
H -5.570450 -0.777976 1.465147
H -0.365437 -0.010792 0.701626
C 0.765310 -2.028132 -0.735092
N 2.008197 -1.341444 -0.471016
C 3.125984 -2.211035 -0.159087
C 4.267620 -1.445943 0.491234
C 4.440157 -0.136385 -0.265344
N 3.219174 0.621058 -0.127728
C 3.297939 2.064062 -0.068413
C 2.043819 2.616548 0.595668
C 0.835613 2.058071 -0.149954
N 0.861025 0.613610 -0.237034
C 2.006152 0.003959 -0.262760
H 0.271881 -2.348895 0.187234
H 0.098719 -1.361721 -1.275395
H 0.977570 -2.903304 -1.349364
H 2.775614 -3.006775 0.508883
H 3.471645 -2.680294 -1.090844
H 5.181515 -2.037312 0.462485
H 4.024990 -1.222686 1.531752
H 4.664277 -0.336905 -1.322836
H 5.258656 0.453140 0.154068
H 4.188396 2.336388 0.507153
H 3.403004 2.485968 -1.079633
H 2.047756 3.705680 0.570533
H 2.005289 2.285322 1.635534
H 0.798169 2.480608 -1.164864
H -0.092383 2.339194 0.357625
>
47
smiles = Cc1c[n:1]c2c(ccc3c(C)c(C)c[n:1]c23)c1C  energy = -1135.0646995990292 Hartee
F -5.978947 -0.286024 1.901390
C -4.968024 -0.413654 0.984749
C -5.290495 -0.573708 -0.348957
C -4.268174 -0.701753 -1.268788
C -2.933934 -0.669183 -0.856654
C -2.642325 -0.507012 0.497510
C -3.659295 -0.376060 1.424027
O -1.971105 -0.803548 -1.786267
H -6.324709 -0.598047 -0.654034
H -4.484094 -0.827605 -2.317918
H -1.609720 -0.474532 0.808001
H -3.447704 -0.247964 2.474178
H -1.078966 -0.756985 -1.358372
C 0.109050 4.945406 -0.437950
C 0.559479 3.519828 -0.334829
C -0.330907 2.497363 -0.697602
N -0.056601 1.219689 -0.657926
C 1.160699 0.844926 -0.241504
C 2.143604 1.776514 0.158515
C 3.405123 1.279164 0.595211
C 3.673799 -0.048583 0.631983
C 2.710228 -1.018680 0.231818
C 2.953243 -2.414110 0.252801
C 4.280747 -2.930446 0.716261
C 1.938789 -3.265321 -0.163838
C 2.080960 -4.756850 -0.186353
C 0.729267 -2.691769 -0.580203
N 0.484474 -1.405687 -0.604859
C 1.448586 -0.562648 -0.208267
C 1.824316 3.155578 0.104494
C 2.845123 4.172021 0.517062
H -0.914281 4.987829 -0.802410
H 0.147554 5.434680 0.534554
H 0.742569 5.501452 -1.127951
H -1.328859 2.741424 -1.040177
H 4.163497 1.980679 0.904948
H 4.641265 -0.383330 0.970772
H 4.471736 -2.608300 1.739229
H 4.318469 -4.013183 0.684659
H 5.076552 -2.538846 0.083699
H 2.899475 -5.056910 -0.839255
H 1.165230 -5.213845 -0.552709
H 2.280148 -5.141060 0.813347
H -0.086595 -3.320959 -0.912936
H 3.133401 4.013788 1.555678
H 3.737647 4.078897 -0.100468
H 2.462481 5.181265 0.417375
>
23
smiles = C[Se](C)=[O:1]  energy = -2963.1735125234595 Hartee
F -5.512471 -0.695788 0.037367
C -4.211077 -0.275624 0.013283
C -3.205316 -1.220406 -0.045233
C -1.891515 -0.791167 -0.069166
C -1.596592 0.569715 -0.033908
C -2.631909 1.501904 0.024277
C -3.947213 1.080095 0.048270
O -0.320504 1.019304 -0.053333
H -3.451714 -2.269964 -0.071882
H -1.080822 -1.503963 -0.114913
H -2.389216 2.552328 0.050504
H -4.760361 1.786827 0.093226
H 0.296707 0.244369 -0.094976
C 2.942841 0.674362 1.566960
Se 3.019041 -0.472311 -0.018071
C 3.061436 0.986014 -1.323459
O 1.481501 -1.011602 -0.139086
H 3.871078 1.228490 1.657543
H 2.088668 1.340256 1.452330
H 2.799576 0.030822 2.432907
H 3.006897 0.542125 -2.315627
H 3.983874 1.545550 -1.210306
H 2.188264 1.612858 -1.147486
>
37
smiles = CN(C)P(C)(=[O:1])N(C)C  energy = -1131.9935377572456 Hartee
F -6.188648 1.032653 0.302818
C -4.969032 0.434797 0.141663
C -4.909897 -0.812762 -0.449588
C -3.676660 -1.413151 -0.612940
C -2.517212 -0.766501 -0.185364
C -2.607141 0.489955 0.408881
C -3.837908 1.097604 0.575482
O -1.328383 -1.388758 -0.367219
H -5.815991 -1.298548 -0.774482
H -3.591999 -2.385913 -1.070144
H -1.704006 0.981565 0.738696
H -3.924346 2.069695 1.034342
H -0.604882 -0.819174 -0.032298
C 2.439042 2.727346 0.064778
N 3.033078 1.414206 -0.070119
C 4.329741 1.414352 -0.715791
P 2.055810 0.044593 -0.162318
C 1.874513 -0.501999 -1.900288
O 0.747019 0.336375 0.469367
N 2.812133 -1.219666 0.630614
C 2.833394 -1.138836 2.077963
C 3.878410 -2.027394 0.079825
H 2.371202 3.246230 -0.897201
H 3.041351 3.330827 0.747769
H 1.440187 2.614799 0.479526
H 5.040016 1.966914 -0.095563
H 4.679617 0.391737 -0.825675
H 4.292234 1.888862 -1.702664
H 1.185623 0.201381 -2.366077
H 2.810789 -0.504945 -2.447715
H 1.423105 -1.491007 -1.906594
H 3.775587 -0.725004 2.452437
H 2.013198 -0.500214 2.400882
H 2.693897 -2.136519 2.499730
H 4.866090 -1.674996 0.398078
H 3.824544 -2.026851 -1.004559
H 3.755385 -3.054790 0.432536
>
43
smiles = [O:1]=[Se](Cc1ccccc1)Cc1ccccc1  energy = -3425.032856793824 Hartee
F -6.914831 -1.385102 -0.126497
C -5.553753 -1.357717 0.001261
C -4.977497 -1.930881 1.118492
C -3.602018 -1.902301 1.245313
C -2.819136 -1.304747 0.258699
C -3.426114 -0.731822 -0.856018
C -4.801701 -0.756689 -0.989179
O -1.474519 -1.294671 0.417142
H -5.599006 -2.389840 1.870731
H -3.118586 -2.341292 2.103660
H -2.808123 -0.268309 -1.611567
H -5.288442 -0.318798 -1.846145
H -1.061160 -0.839249 -0.358474
O -0.192036 -0.044740 -1.641868
Se 1.363034 0.242049 -1.242514
C 1.226131 0.855800 0.641825
C 0.392118 2.091820 0.656362
C -0.877356 2.089308 1.220312
C -1.653028 3.236311 1.201159
C -1.170177 4.393739 0.614910
C 0.091573 4.401525 0.040733
C 0.865610 3.256313 0.058095
C 2.032078 -1.580176 -0.809006
C 3.343514 -1.517053 -0.109296
C 3.457076 -1.872638 1.229816
C 4.680948 -1.794377 1.872630
C 5.800673 -1.353448 1.187514
C 5.694357 -0.992366 -0.146581
C 4.473657 -1.074713 -0.790367
H 0.760107 0.042175 1.201092
H 2.245068 1.032210 0.984152
H -1.260173 1.186912 1.673601
H -2.639491 3.221772 1.640397
H -1.777515 5.286489 0.597873
H 0.468511 5.299634 -0.425689
H 1.848477 3.255082 -0.396819
H 2.099880 -2.086491 -1.775523
H 1.242789 -2.042441 -0.211114
H 2.586470 -2.217968 1.768146
H 4.758716 -2.076689 2.912049
H 6.753996 -1.290334 1.690476
H 6.564346 -0.646662 -0.684890
H 4.385173 -0.789994 -1.830237
>
55
smiles = c1ccc(cc1)-c1cc[n:1]c2c1ccc1c(cc[n:1]c21)-c1ccccc1  energy = -1439.7548348679818 Hartee
F -7.399332 -0.441200 1.989096
C -6.381461 -0.595629 1.084819
C -5.076880 -0.580318 1.537974
C -4.052594 -0.738529 0.623404
C -4.334661 -0.906308 -0.731852
C -5.664009 -0.915715 -1.158919
C -6.693201 -0.759893 -0.250962
O -3.363292 -1.067336 -1.650022
H -4.874431 -0.447871 2.589309
H -3.022543 -0.722678 0.943849
H -5.871234 -1.046134 -2.209286
H -7.724436 -0.765482 -0.567068
H -2.477814 -1.029844 -1.211310
C 5.578960 -4.318716 0.560666
C 4.864821 -4.676294 -0.571493
C 3.613387 -4.134816 -0.803415
C 3.068346 -3.215153 0.088650
C 3.790860 -2.862277 1.225998
C 5.037116 -3.415067 1.460312
C 1.726199 -2.660312 -0.153637
C 0.652887 -3.512293 -0.340582
C -0.620437 -2.977553 -0.532803
N -0.869045 -1.689425 -0.536712
C 0.151003 -0.835687 -0.370591
C 1.486140 -1.265060 -0.192209
C 2.520048 -0.289412 -0.117149
C 2.240211 1.036178 -0.142437
C 0.900625 1.508804 -0.236327
C 0.555053 2.882461 -0.239029
C -0.772453 3.218711 -0.430018
C -1.722392 2.206581 -0.575606
N -1.429517 0.930073 -0.544177
C -0.148294 0.572069 -0.385386
C 1.556628 3.941992 -0.031070
C 2.371945 3.941591 1.098247
C 3.288137 4.958398 1.298420
C 3.405729 5.982754 0.373116
C 2.594351 5.992863 -0.749780
C 1.670155 4.983166 -0.948468
H 6.554139 -4.745269 0.742965
H 5.282771 -5.381681 -1.274628
H 3.058226 -4.408733 -1.689040
H 3.362220 -2.169830 1.936309
H 5.586873 -3.139888 2.348455
H 0.794657 -4.581673 -0.319370
H -1.478380 -3.619587 -0.681080
H 3.543148 -0.628875 -0.061354
H 3.039235 1.761282 -0.109067
H -1.077149 4.253919 -0.440769
H -2.769750 2.441795 -0.712112
H 2.268278 3.153312 1.830078
H 3.912017 4.951512 2.180236
H 4.125041 6.773085 0.528902
H 2.680407 6.791028 -1.472491
H 1.041672 4.987352 -1.827250
>
56
smiles = CCCC[N+](CCCC)(CCCC)[N-]C#[N:1]  energy = -1082.027322024497 Hartee
F -7.089868 1.078017 -0.318995
C -5.926843 0.358353 -0.381020
C -4.932708 0.768712 -1.247118
C -3.759016 0.040910 -1.304889
C -3.587482 -1.085898 -0.502704
C -4.611221 -1.477046 0.362069
C -5.786651 -0.754833 0.425173
O -2.451883 -1.814327 -0.521896
H -5.079207 1.642125 -1.862917
H -2.962305 0.335068 -1.972053
H -4.467521 -2.351746 0.976527
H -6.586527 -1.045066 1.087636
H -1.801345 -1.423536 -1.180760
C 3.245005 4.318888 -0.220184
C 4.295907 3.215038 -0.274374
C 3.734468 1.855078 -0.701294
C 2.862227 1.240027 0.388886
N 2.065234 0.072667 -0.073105
C 2.918801 -0.997023 -0.675750
C 4.037870 -1.558581 0.193646
C 4.831049 -2.605280 -0.593303
C 5.958485 -3.196408 0.245962
C 1.296907 -0.500490 1.075976
C 0.286648 0.467114 1.687569
C -0.770480 -0.293557 2.489790
C -1.758554 0.660201 3.150611
N 1.191648 0.572532 -1.068952
C 0.290854 -0.173550 -1.557576
N -0.586295 -0.733624 -2.090734
H 2.714599 4.385103 -1.167596
H 3.720501 5.278021 -0.027040
H 2.516639 4.143937 0.567423
H 4.779015 3.121032 0.700888
H 5.063413 3.503460 -0.995343
H 3.129406 1.980663 -1.600899
H 4.573204 1.198079 -0.934301
H 3.463589 0.931144 1.243280
H 2.135068 1.985184 0.706104
H 2.238444 -1.801555 -0.970113
H 3.334492 -0.575506 -1.592850
H 4.722026 -0.768210 0.502166
H 3.633138 -2.036097 1.086467
H 5.250514 -2.147011 -1.491381
H 4.159896 -3.404741 -0.913792
H 6.653684 -2.419824 0.557950
H 6.509765 -3.937246 -0.328045
H 5.561771 -3.680785 1.135696
H 0.753204 -1.364625 0.684179
H 2.005057 -0.834140 1.833043
H 0.784957 1.179873 2.346741
H -0.210852 1.021591 0.888480
H -1.310815 -0.969727 1.824040
H -0.281392 -0.897754 3.257540
H -2.513365 0.103003 3.699852
H -2.263000 1.266194 2.401020
H -1.247891 1.324617 3.844910
>
34
smiles = CN(C)C(=[NH:1])N(C)C  energy = -768.9948564342226 Hartee
F 4.862485 -1.816276 -0.108835
C 3.884338 -0.858629 -0.146723
C 2.578822 -1.246302 -0.372773
C 1.594018 -0.276836 -0.409537
C 1.912835 1.068264 -0.220345
C 3.244700 1.426550 0.004515
C 4.234433 0.464818 0.041708
O 0.983333 2.039350 -0.241822
H 2.343992 -2.289225 -0.517890
H 0.565576 -0.551765 -0.587539
H 3.482484 2.468602 0.148004
H 5.265555 0.729838 0.214178
H 0.063375 1.653299 -0.387939
C -4.621347 -0.469438 -0.075194
N -3.319679 -0.421600 -0.714263
C -3.388878 -0.444062 -2.159104
C -2.274691 0.253521 -0.107151
N -1.455978 1.047598 -0.703410
N -2.130175 0.023758 1.232802
C -2.314090 -1.302334 1.787300
C -1.211473 0.847527 1.987101
H -5.306157 0.235628 -0.560134
H -4.535213 -0.199634 0.972334
H -5.041973 -1.473757 -0.159783
H -3.804169 0.482233 -2.578697
H -4.031516 -1.273490 -2.454074
H -2.395819 -0.612095 -2.574560
H -1.714068 1.283940 -1.653348
H -1.343026 -1.729111 2.059626
H -2.931302 -1.250507 2.686977
H -2.787571 -1.955662 1.061137
H -1.537204 0.857066 3.027644
H -1.228099 1.859593 1.591704
H -0.185082 0.469961 1.941767
>
41
smiles = CCOP(=[O:1])(N(C)C)N(C)C  energy = -1246.4898142543648 Hartee
F 6.476704 -1.198168 -0.086940
C 5.259536 -0.578734 -0.140826
C 4.144132 -1.325810 -0.465418
C 2.914750 -0.695062 -0.518176
C 2.812843 0.666618 -0.247802
C 3.954648 1.397292 0.077052
C 5.186515 0.774187 0.130686
O 1.621447 1.314789 -0.286096
H 4.241687 -2.379583 -0.672391
H 2.022772 -1.248917 -0.771235
H 3.859174 2.451629 0.282168
H 6.080403 1.323440 0.379010
H 0.911187 0.679707 -0.520356
C -5.088910 -0.640902 -1.530159
C -4.168199 0.525937 -1.213228
O -2.795367 0.134433 -1.346777
P -1.766928 -0.088069 -0.137347
O -0.470923 -0.455511 -0.747943
N -2.306814 -1.234662 0.937713
C -1.909443 -2.613757 0.760302
C -3.443128 -1.027650 1.809375
N -1.843903 1.342751 0.758431
C -1.048361 1.337581 1.976944
C -1.639902 2.561129 -0.011386
H -4.893691 -1.004920 -2.535782
H -6.123205 -0.314602 -1.462788
H -4.925755 -1.457402 -0.832009
H -4.346886 0.910418 -0.207241
H -4.320082 1.332213 -1.937672
H -1.070660 -2.645029 0.068856
H -1.598906 -3.035135 1.719805
H -2.725116 -3.221864 0.355868
H -3.206672 -1.413857 2.804497
H -3.647991 0.036672 1.881991
H -4.333580 -1.547745 1.442286
H 0.005400 1.553152 1.773454
H -1.441192 2.100966 2.650500
H -1.120824 0.362532 2.450646
H -0.577178 2.762208 -0.183194
H -2.134602 2.473277 -0.976109
H -2.073828 3.396103 0.541698
>
48
smiles = [O:1]=P(c1ccccc1)(c1ccccc1)c1ccccc1  energy = -1517.6790898111863 Hartee
F -6.764455 -1.168153 -0.821757
C -5.577099 -0.492716 -0.773173
C -4.489561 -1.004652 -1.452698
C -3.290099 -0.318570 -1.398384
C -3.186845 0.862368 -0.667430
C -4.302557 1.357869 0.006160
C -5.504903 0.679901 -0.045306
O -2.025480 1.557922 -0.587209
H -4.584882 -1.921255 -2.012941
H -2.423863 -0.693388 -1.924359
H -4.207298 2.275866 0.563422
H -6.377391 1.048865 0.469824
H -1.312085 1.048837 -1.018787
O 0.099955 -0.161223 -1.436178
P 1.118282 -0.101618 -0.350004
C 0.588004 -0.996740 1.137951
C -0.676882 -1.567473 1.152860
C -1.110071 -2.258688 2.271162
C -0.276492 -2.383405 3.370651
C 0.990617 -1.818436 3.353702
C 1.426318 -1.125406 2.239721
C 1.470647 1.618205 0.129690
C 2.151776 2.404615 -0.791443
C 2.382980 3.740232 -0.518983
C 1.928150 4.289994 0.670068
C 1.238904 3.507429 1.582113
C 1.005252 2.169140 1.313878
C 2.700716 -0.834642 -0.856918
C 2.671642 -1.802186 -1.852266
C 3.845544 -2.412315 -2.257405
C 5.046798 -2.057552 -1.664341
C 5.076084 -1.090978 -0.670652
C 3.905067 -0.477577 -0.263219
H -1.312647 -1.464074 0.285656
H -2.096571 -2.697628 2.281853
H -0.613542 -2.923135 4.243128
H 1.638555 -1.919247 4.211812
H 2.410466 -0.682022 2.218635
H 2.491912 1.956454 -1.716195
H 2.914754 4.352756 -1.231973
H 2.107672 5.333236 0.883128
H 0.879184 3.940053 2.503774
H 0.462954 1.553425 2.016910
H 1.723326 -2.055311 -2.305731
H 3.823491 -3.162003 -3.034354
H 5.963844 -2.532274 -1.980182
H 6.014838 -0.812917 -0.214772
H 3.923409 0.287309 0.499693
>
37
smiles = C[N:1]=C(N(C)C)N(C)C  energy = -808.2667515052868 Hartee
F -4.800216 -1.786497 -0.687304
C -3.846892 -0.845252 -0.404423
C -2.526641 -1.123809 -0.696365
C -1.566581 -0.171831 -0.408022
C -1.923961 1.047634 0.167679
C -3.269708 1.297650 0.449488
C -4.235155 0.352763 0.164619
O -1.020120 1.995805 0.469883
H -2.261581 -2.069931 -1.141814
H -0.527635 -0.365074 -0.625813
H -3.537659 2.242876 0.894136
H -5.276355 0.535042 0.378155
H -0.087047 1.692060 0.240388
C 1.863558 2.119482 -1.277419
N 1.459254 1.230870 -0.217612
C 2.119524 0.173679 0.103002
N 3.125756 -0.407377 -0.639965
C 3.022584 -0.600908 -2.066090
C 4.296312 -0.990844 -0.028737
N 1.877127 -0.404778 1.323658
C 1.757598 -1.842113 1.452586
C 1.153387 0.332800 2.333793
H 1.262891 1.953787 -2.176402
H 1.667780 3.137228 -0.933211
H 2.922231 2.030105 -1.535054
H 3.823707 -0.078983 -2.599282
H 3.098806 -1.669756 -2.298068
H 2.062801 -0.241022 -2.425272
H 4.306308 -0.762534 1.032967
H 4.332557 -2.076698 -0.167438
H 5.190843 -0.560553 -0.490671
H 2.098981 -2.336248 0.548446
H 2.349119 -2.194980 2.300534
H 0.710921 -2.116739 1.622050
H 1.496663 -0.000608 3.314422
H 1.357905 1.393503 2.217185
H 0.072551 0.174044 2.268196
>
28
smiles = Cc1cc[n+]([O-:1])cc1  energy = -769.1896326501279 Hartee
F 6.082534 -0.672382 0.267720